 DBCSR| CPU Multiplication driver                                           XSMM
 DBCSR| Multrec recursion limit                                              512
 DBCSR| Multiplication stack size                                           1000
 DBCSR| Maximum elements for images                                    UNLIMITED
 DBCSR| Multiplicative factor virtual images                                   1
 DBCSR| Use multiplication densification                                       T
 DBCSR| Multiplication size stacks                                             3
 DBCSR| Number of 3D layers                                               SINGLE
 DBCSR| Use MPI memory allocation                                              T
 DBCSR| Use RMA algorithm                                                      F
 DBCSR| Use Communication thread                                               T
 DBCSR| Communication thread load                                              0


  **** **** ******  **  PROGRAM STARTED AT               2020-11-06 14:15:27.466
 ***** ** ***  *** **   PROGRAM STARTED ON                 cas096.pi.sjtu.edu.cn
 **    ****   ******    PROGRAM STARTED BY                                 hpclc
 ***** **    ** ** **   PROGRAM PROCESS ID                                168548
  **** **  *******  **  PROGRAM STARTED IN /lustre/home/acct-hpc/hpclc/test/chem
                                           _cacu/cp2k

 CP2K| version string:                                          CP2K version 7.1
 CP2K| source code revision number:                                  git:e635599
 CP2K| cp2kflags: omp libint fftw3 libxc parallel mpi3 scalapack xsmm           
 CP2K| is freely available from                            https://www.cp2k.org/
 CP2K| Program compiled at                          Mon Sep 28 11:32:36 CST 2020
 CP2K| Program compiled on                                 cas607.pi.sjtu.edu.cn
 CP2K| Program compiled for                        linux-centos7-cascadelake-gcc
 CP2K| Data directory path    /lustre/opt/cascadelake/linux-centos7-cascadelake/
 CP2K| Input file name                                                 argon.inp

 GLOBAL| Force Environment number                                              1
 GLOBAL| Basis set file name                                           BASIS_SET
 GLOBAL| Potential file name                                           POTENTIAL
 GLOBAL| MM Potential file name                                     MM_POTENTIAL
 GLOBAL| Coordinate file name                                      __STD_INPUT__
 GLOBAL| Method name                                                        CP2K
 GLOBAL| Project name                                                      ar108
 GLOBAL| Preferred FFT library                                             FFTW3
 GLOBAL| Preferred diagonalization lib.                                       SL
 GLOBAL| Run type                                                             MD
 GLOBAL| All-to-all communication in single precision                          F
 GLOBAL| FFTs using library dependent lengths                                  F
 GLOBAL| Global print level                                               MEDIUM
 GLOBAL| MPI I/O enabled                                                       T
 GLOBAL| Total number of message passing processes                             1
 GLOBAL| Number of threads for this process                                   40
 GLOBAL| This output is from process                                           0
 GLOBAL| CPU model name                 Intel(R) Xeon(R) Gold 6248 CPU @ 2.50GHz
 GLOBAL| CPUID                                                              1003

 MEMORY| system memory details [Kb]
 MEMORY|                        rank 0           min           max       average
 MEMORY| MemTotal            196490388     196490388     196490388     196490388
 MEMORY| MemFree             189482088     189482088     189482088     189482088
 MEMORY| Buffers                  4148          4148          4148          4148
 MEMORY| Cached                2986892       2986892       2986892       2986892
 MEMORY| Slab                  1174920       1174920       1174920       1174920
 MEMORY| SReclaimable           228960        228960        228960        228960
 MEMORY| MemLikelyFree       192702088     192702088     192702088     192702088


 *** Fundamental physical constants (SI units) ***

 *** Literature: B. J. Mohr and B. N. Taylor,
 ***             CODATA recommended values of the fundamental physical
 ***             constants: 2006, Web Version 5.1
 ***             http://physics.nist.gov/constants

 Speed of light in vacuum [m/s]                             2.99792458000000E+08
 Magnetic constant or permeability of vacuum [N/A**2]       1.25663706143592E-06
 Electric constant or permittivity of vacuum [F/m]          8.85418781762039E-12
 Planck constant (h) [J*s]                                  6.62606896000000E-34
 Planck constant (h-bar) [J*s]                              1.05457162825177E-34
 Elementary charge [C]                                      1.60217648700000E-19
 Electron mass [kg]                                         9.10938215000000E-31
 Electron g factor [ ]                                     -2.00231930436220E+00
 Proton mass [kg]                                           1.67262163700000E-27
 Fine-structure constant                                    7.29735253760000E-03
 Rydberg constant [1/m]                                     1.09737315685270E+07
 Avogadro constant [1/mol]                                  6.02214179000000E+23
 Boltzmann constant [J/K]                                   1.38065040000000E-23
 Atomic mass unit [kg]                                      1.66053878200000E-27
 Bohr radius [m]                                            5.29177208590000E-11

 *** Conversion factors ***

 [u] -> [a.u.]                                              1.82288848426455E+03
 [Angstrom] -> [Bohr] = [a.u.]                              1.88972613288564E+00
 [a.u.] = [Bohr] -> [Angstrom]                              5.29177208590000E-01
 [a.u.] -> [s]                                              2.41888432650478E-17
 [a.u.] -> [fs]                                             2.41888432650478E-02
 [a.u.] -> [J]                                              4.35974393937059E-18
 [a.u.] -> [N]                                              8.23872205491840E-08
 [a.u.] -> [K]                                              3.15774647902944E+05
 [a.u.] -> [kJ/mol]                                         2.62549961709828E+03
 [a.u.] -> [kcal/mol]                                       6.27509468713739E+02
 [a.u.] -> [Pa]                                             2.94210107994716E+13
 [a.u.] -> [bar]                                            2.94210107994716E+08
 [a.u.] -> [atm]                                            2.90362800883016E+08
 [a.u.] -> [eV]                                             2.72113838565563E+01
 [a.u.] -> [Hz]                                             6.57968392072181E+15
 [a.u.] -> [1/cm] (wave numbers)                            2.19474631370540E+05
 [a.u./Bohr**2] -> [1/cm]                                   5.14048714338585E+03
 


                      ************* ******** ***********   
                     ************* **********************  
                     ****     **** ****      ***********   
                     ******** ****  *******     ****       
                     *******  ****   *******   ****        
                     ****     ****       ****  ****        
                     ****     **** **********  ****        
                      ****     **** ********    ****       
                     FRONTIERS IN SIMULATION TECHNOLOGY    
                                                           
                        C.J. Mundy, S. Balasubramanian,    
                     Ken Bagchi, J. Hutter, Ari Seitsonen  
                      IFW Kuo, T. Laino, J. VandeVondele   
                                 Version 1.0               

                                                           


 CELL| Volume [angstrom^3]:                                             5051.263
 CELL| Vector a [angstrom]:      17.158     0.000     0.000    |a| =      17.158
 CELL| Vector b [angstrom]:       0.000    17.158     0.000    |b| =      17.158
 CELL| Vector c [angstrom]:       0.000     0.000    17.158    |c| =      17.158
 CELL| Angle (b,c), alpha [degree]:                                       90.000
 CELL| Angle (a,c), beta  [degree]:                                       90.000
 CELL| Angle (a,b), gamma [degree]:                                       90.000
 CELL| Numerically orthorhombic:                                             YES

 CELL_REF| Volume [angstrom^3]:                                         5051.263
 CELL_REF| Vector a [angstrom    17.158     0.000     0.000    |a| =      17.158
 CELL_REF| Vector b [angstrom     0.000    17.158     0.000    |b| =      17.158
 CELL_REF| Vector c [angstrom     0.000     0.000    17.158    |c| =      17.158
 CELL_REF| Angle (b,c), alpha [degree]:                                   90.000
 CELL_REF| Angle (a,c), beta  [degree]:                                   90.000
 CELL_REF| Angle (a,b), gamma [degree]:                                   90.000
 CELL_REF| Numerically orthorhombic:                                         YES
 EWALD|                                                                 not used

 CELL_TOP| Volume [angstrom^3]:                                         5051.263
 CELL_TOP| Vector a [angstrom    17.158     0.000     0.000    |a| =      17.158
 CELL_TOP| Vector b [angstrom     0.000    17.158     0.000    |b| =      17.158
 CELL_TOP| Vector c [angstrom     0.000     0.000    17.158    |c| =      17.158
 CELL_TOP| Angle (b,c), alpha [degree]:                                   90.000
 CELL_TOP| Angle (a,c), beta  [degree]:                                   90.000
 CELL_TOP| Angle (a,b), gamma [degree]:                                   90.000
 CELL_TOP| Numerically orthorhombic:                                         YES

 GENERATE|  Preliminary Number of Bonds generated:                             0
 GENERATE|  Achieved consistency in connectivity generation.
 CHARGE_INFO| Total Charge of the Classical System:                     0.000000

 FORCEFIELD| WARNING: A non Critical ForceField parameter is missing! CP2K GOES!
 FORCEFIELD| Non critical parameters are:Urey-Bradley,Torsions,Impropers, Opbends and 1-4
 FORCEFIELD| All missing parameters will not contribute to the potential energy!
 FORCEFIELD| Activate the print key FF_INFO to have a list of missing parameters


 SPLINE_INFO| Generating 1 splines for NONBONDED14 interactions 
              Due to 1 different atomic kinds
  ...1
 SPLINE_INFO| Number of unique splines computed:            1
 SPLINE_INFO| Done

 SPLINE_INFO| Generating 1 splines for NONBONDED interactions 
              Due to 1 different atomic kinds
  ...1
 SPLINE_INFO| Number of unique splines computed:            1
 SPLINE_INFO| Done


 MOLECULE KIND INFORMATION


 All atoms are their own molecule, skipping detailed information


 MODULE FIST:  ATOMIC COORDINATES IN ANGSTROM

  Atom  Kind  ATM_TYP       X           Y           Z          q(eff)       Mass

     1    1   Ar        -8.538690  -15.581626    2.856637      0.00      39.9480
     2    1   Ar         1.530073    9.285282   11.177782      0.00      39.9480
     3    1   Ar        11.991023   -7.488253   -9.965453      0.00      39.9480
     4    1   Ar       -12.678240   -3.341059    4.074711      0.00      39.9480
     5    1   Ar        -1.770463   -0.232459   13.201295      0.00      39.9480
     6    1   Ar         8.017614   -2.572496   -4.127206      0.00      39.9480
     7    1   Ar         8.578495    4.013967    5.573688      0.00      39.9480
     8    1   Ar        -3.892007  -10.293092   -6.986402      0.00      39.9480
     9    1   Ar        -3.354572  -16.111962   16.135852      0.00      39.9480
    10    1   Ar         9.789572  -16.262826   -5.697909      0.00      39.9480
    11    1   Ar         0.505143   -4.229784   12.485417      0.00      39.9480
    12    1   Ar        15.563224   -7.980489    2.209947      0.00      39.9480
    13    1   Ar        -5.407416   -2.647645   -0.681485      0.00      39.9480
    14    1   Ar        -0.098372   -1.736740   -7.119155      0.00      39.9480
    15    1   Ar         7.526558   -5.529700  -12.888615      0.00      39.9480
    16    1   Ar        -5.456554    0.564446    2.039025      0.00      39.9480
    17    1   Ar       -11.859100    3.404074    3.726879      0.00      39.9480
    18    1   Ar        16.717536   -7.471324   -1.022745      0.00      39.9480
    19    1   Ar       -20.457213   -5.737008    4.818451      0.00      39.9480
    20    1   Ar        14.848552   -1.416086  -16.083911      0.00      39.9480
    21    1   Ar         8.043795   -8.140338   -4.755431      0.00      39.9480
    22    1   Ar        12.273844   -1.705898   12.962249      0.00      39.9480
    23    1   Ar        -0.421852  -11.117749   20.454536      0.00      39.9480
    24    1   Ar         2.281943    5.920839  -11.173245      0.00      39.9480
    25    1   Ar       -13.964847    8.779239    8.073734      0.00      39.9480
    26    1   Ar       -10.314744    6.385296  -15.341196      0.00      39.9480
    27    1   Ar        -2.719000  -21.489007   10.867810      0.00      39.9480
    28    1   Ar       -17.792388  -10.784090   -4.839550      0.00      39.9480
    29    1   Ar         5.234941   -6.792229   -6.071877      0.00      39.9480
    30    1   Ar         3.524488  -10.122595    2.968290      0.00      39.9480
    31    1   Ar       -16.158660   -5.182743    8.570727      0.00      39.9480
    32    1   Ar        -5.809828    4.326402    2.555991      0.00      39.9480
    33    1   Ar         6.291601   27.574134   15.024641      0.00      39.9480
    34    1   Ar        -3.187417   23.299647  -16.803485      0.00      39.9480
    35    1   Ar        -4.202258    9.360377   16.589131      0.00      39.9480
    36    1   Ar        -7.643929   -9.524324  -29.822873      0.00      39.9480
    37    1   Ar         0.545353   13.924055   -0.383787      0.00      39.9480
    38    1   Ar        -5.274329   -5.538138  -20.301470      0.00      39.9480
    39    1   Ar        22.992185    6.786194   -1.982899      0.00      39.9480
    40    1   Ar        19.772003  -10.237334   -3.330818      0.00      39.9480
    41    1   Ar         0.156777    6.596301    8.907491      0.00      39.9480
    42    1   Ar         5.579374    0.233106    1.027523      0.00      39.9480
    43    1   Ar        -3.643436    3.964489   25.875212      0.00      39.9480
    44    1   Ar        -0.248492   20.448973   -2.512204      0.00      39.9480
    45    1   Ar         2.936267    0.859812    9.967433      0.00      39.9480
    46    1   Ar         3.303843   -2.924213   -6.349270      0.00      39.9480
    47    1   Ar        -6.154902   -6.849615   -6.462041      0.00      39.9480
    48    1   Ar       -23.238829  -28.121309    7.137210      0.00      39.9480
    49    1   Ar         4.115263    2.715641   -0.852030      0.00      39.9480
    50    1   Ar        14.619415    2.808152    1.936020      0.00      39.9480
    51    1   Ar        18.966795   16.570089   13.342344      0.00      39.9480
    52    1   Ar       -28.612416    2.843536   -9.236020      0.00      39.9480
    53    1   Ar        -5.970046  -16.223017   -9.229281      0.00      39.9480
    54    1   Ar        10.048108   16.385482    5.125787      0.00      39.9480
    55    1   Ar        -7.225085    6.346154   -0.680757      0.00      39.9480
    56    1   Ar       -12.013891  -10.465311   -6.434348      0.00      39.9480
    57    1   Ar        -8.531699   12.897659   -0.890361      0.00      39.9480
    58    1   Ar       -25.370069    3.331199   -7.939177      0.00      39.9480
    59    1   Ar         2.901635  -12.966818   -7.949078      0.00      39.9480
    60    1   Ar       -13.596394   11.989658   -3.550688      0.00      39.9480
    61    1   Ar        13.141603    4.971438   -3.508413      0.00      39.9480
    62    1   Ar       -13.329546   16.041002    7.052828      0.00      39.9480
    63    1   Ar        -4.150683  -19.511191   21.025597      0.00      39.9480
    64    1   Ar        -8.429443   16.306516  -18.288782      0.00      39.9480
    65    1   Ar         0.788636    9.590168   22.177261      0.00      39.9480
    66    1   Ar        -2.926068   -7.974081  -21.351990      0.00      39.9480
    67    1   Ar        -6.399599   -4.562805    2.755336      0.00      39.9480
    68    1   Ar        -4.044239  -14.927597   -5.585615      0.00      39.9480
    69    1   Ar       -27.852491    0.802052   -3.026638      0.00      39.9480
    70    1   Ar        -2.839665    7.116271    6.185473      0.00      39.9480
    71    1   Ar        -8.683279   -6.670883   -9.158155      0.00      39.9480
    72    1   Ar       -11.962085   -2.209562   -1.839800      0.00      39.9480
    73    1   Ar        22.684855   12.204721    1.012388      0.00      39.9480
    74    1   Ar         6.295010   -0.769712   -6.914543      0.00      39.9480
    75    1   Ar         3.499955   -8.007049   -0.426527      0.00      39.9480
    76    1   Ar         0.385155   17.876974  -17.406523      0.00      39.9480
    77    1   Ar        21.228887   10.232710  -13.087220      0.00      39.9480
    78    1   Ar         1.220826    5.835974   16.845010      0.00      39.9480
    79    1   Ar        -7.087540    6.034130  -22.325145      0.00      39.9480
    80    1   Ar        -0.024427   17.469361    7.371167      0.00      39.9480
    81    1   Ar        15.098182    9.889405   -8.493827      0.00      39.9480
    82    1   Ar        -6.578777  -15.048453   14.723036      0.00      39.9480
    83    1   Ar        -2.226667   -4.184219   -2.470079      0.00      39.9480
    84    1   Ar         5.206211  -22.656518    7.394757      0.00      39.9480
    85    1   Ar        -8.858288   -2.475107    2.354414      0.00      39.9480
    86    1   Ar         6.752024    0.430391    5.434925      0.00      39.9480
    87    1   Ar        11.926313    8.132673    2.400811      0.00      39.9480
    88    1   Ar       -14.550756   -0.471541  -13.705843      0.00      39.9480
    89    1   Ar        14.115769   -2.989686   24.684280      0.00      39.9480
    90    1   Ar        -3.351073   -0.681363   -7.370399      0.00      39.9480
    91    1   Ar         7.792699    3.306876   -0.073238      0.00      39.9480
    92    1   Ar        -1.132891  -17.167284  -12.912647      0.00      39.9480
    93    1   Ar        -9.210543  -10.484651   -8.384858      0.00      39.9480
    94    1   Ar        -6.478488   -3.907367  -10.649967      0.00      39.9480
    95    1   Ar         0.987875   13.736359    5.072097      0.00      39.9480
    96    1   Ar         8.860978    9.961039    1.093738      0.00      39.9480
    97    1   Ar        -6.580688  -20.401935   -7.289356      0.00      39.9480
    98    1   Ar        -0.448977   19.586252   11.035120      0.00      39.9480
    99    1   Ar         7.360569   -2.695943    7.260819      0.00      39.9480
   100    1   Ar        13.879134   12.190347    1.248899      0.00      39.9480
   101    1   Ar        -3.657828   19.782906  -11.816151      0.00      39.9480
   102    1   Ar         1.497295   -5.392900    1.924458      0.00      39.9480
   103    1   Ar        18.586161    3.008684    2.064401      0.00      39.9480
   104    1   Ar         6.207308   -9.474184    5.549305      0.00      39.9480
   105    1   Ar         3.650548    3.431811   -4.311608      0.00      39.9480
   106    1   Ar         2.678626    2.293006    5.985030      0.00      39.9480
   107    1   Ar        24.511312    4.007332   13.141250      0.00      39.9480
   108    1   Ar        -0.600233    3.628256    6.384113      0.00      39.9480



 MD| Molecular Dynamics Protocol 
 MD| Ensemble Type                                                           NVE
 MD| Number of Time Steps                                                    100
 MD| Time Step [fs]                                                         5.00
 MD| Temperature [K]                                                       85.00
 MD| Temperature tolerance [K]                                              0.00
 MD| Print MD information every                                        1 step(s)
 MD| File type     Print frequency[steps]                             File names
 MD| Coordinates            1                                    ar108-pos-1.xyz
 MD| Velocities             1                                    ar108-vel-1.xyz
 MD| Energies               1                                       ar108-1.ener
 MD| Dump                  20                                    ar108-1.restart

 ROT| Rotational Analysis Info 
 ROT| Principal axes and moments of inertia in atomic units:
 ROT|                                1                 2                 3
 ROT| EIGENVALUES            0.575980946E+10   0.663791841E+10   0.709298621E+10
 ROT|      X                    -0.704366976       0.088016074       0.704358100
 ROT|      Y                    -0.587139214      -0.629889070      -0.508436134
 ROT|      Z                    -0.398916916       0.771681884      -0.495350749
 ROT| Number of Rotovibrational vectors:     6

 Calculation of degrees of freedom
                                                      Number of atoms:       108
                                 Number of Intramolecular constraints:         0
                                 Number of Intermolecular constraints:         0
                                  Invariants(translation + rotations):         3
                                                   Degrees of freedom:       321


 Restraints Information
                                  Number of Intramolecular restraints:         0
                                  Number of Intermolecular restraints:         0
 ************************** Velocities initialization **************************
 Initial Temperature                                                     85.00 K
 COM velocity:            0.000000000000     -0.000000000000     -0.000000000000
 *******************************************************************************

 MM DIPOLE [BERRY PHASE](A.U.)|                        0.000000        0.000000        0.000000
 MM DIPOLE [BERRY PHASE](Debye)|                       0.000000        0.000000        0.000000
 MM DIPOLE [BERRY PHASE] DERIVATIVE(A.U.)|             0.000000        0.000000        0.000000

 ENERGY| Total FORCE_EVAL ( FIST ) energy (a.u.):             -0.206517821785838


 MD_ENERGIES| Initialization proceeding


 ******************************** GO CP2K GO! **********************************
 INITIAL POTENTIAL ENERGY[hartree]     =                     -0.206517821786E+00
 INITIAL KINETIC ENERGY[hartree]       =                      0.432032783208E-01
 INITIAL TEMPERATURE[K]                =                                  85.000
 INITIAL VOLUME[bohr^3]                =                      0.340876135221E+05
 INITIAL CELL LNTHS[bohr]   =      0.3242392E+02   0.3242392E+02   0.3242392E+02
 INITIAL CELL ANGLS[deg]    =      0.9000000E+02   0.9000000E+02   0.9000000E+02
 ******************************** GO CP2K GO! **********************************
 MM DIPOLE [BERRY PHASE](A.U.)|                        0.000000        0.000000        0.000000
 MM DIPOLE [BERRY PHASE](Debye)|                       0.000000        0.000000        0.000000
 MM DIPOLE [BERRY PHASE] DERIVATIVE(A.U.)|             0.000000        0.000000        0.000000

 ENERGY| Total FORCE_EVAL ( FIST ) energy (a.u.):             -0.206924301870149


 Centre of mass motion (COM):                            x =        0.0000000000
                                                         y =       -0.0000000000
                                                         z =       -0.0000000000

 *******************************************************************************
 ENSEMBLE TYPE                =                                              NVE
 STEP NUMBER                  =                                                1
 TIME [fs]                    =                                         5.000000
 CONSERVED QUANTITY [hartree] =                              -0.163315144862E+00

                                              INSTANTANEOUS             AVERAGES
 CPU TIME [s]                 =                       14.80                14.80
 ENERGY DRIFT PER ATOM [K]    =         -0.175838917629E-02   0.000000000000E+00
 POTENTIAL ENERGY[hartree]    =         -0.206924301870E+00  -0.206924301870E+00
 KINETIC ENERGY [hartree]     =          0.436091570078E-01   0.436091570078E-01
 TEMPERATURE [K]              =                      85.799               85.799
 *******************************************************************************

 MM DIPOLE [BERRY PHASE](A.U.)|                        0.000000        0.000000        0.000000
 MM DIPOLE [BERRY PHASE](Debye)|                       0.000000        0.000000        0.000000
 MM DIPOLE [BERRY PHASE] DERIVATIVE(A.U.)|             0.000000        0.000000        0.000000

 ENERGY| Total FORCE_EVAL ( FIST ) energy (a.u.):             -0.207329070051245


 Centre of mass motion (COM):                            x =        0.0000000000
                                                         y =       -0.0000000000
                                                         z =       -0.0000000000

 *******************************************************************************
 ENSEMBLE TYPE                =                                              NVE
 STEP NUMBER                  =                                                2
 TIME [fs]                    =                                        10.000000
 CONSERVED QUANTITY [hartree] =                              -0.163315638493E+00

                                              INSTANTANEOUS             AVERAGES
 CPU TIME [s]                 =                        7.55                11.17
 ENERGY DRIFT PER ATOM [K]    =         -0.320168533663E-02  -0.160084266831E-02
 POTENTIAL ENERGY[hartree]    =         -0.207329070051E+00  -0.207126685961E+00
 KINETIC ENERGY [hartree]     =          0.440134315584E-01   0.438112942831E-01
 TEMPERATURE [K]              =                      86.594               86.196
 *******************************************************************************

 MM DIPOLE [BERRY PHASE](A.U.)|                        0.000000        0.000000        0.000000
 MM DIPOLE [BERRY PHASE](Debye)|                       0.000000        0.000000        0.000000
 MM DIPOLE [BERRY PHASE] DERIVATIVE(A.U.)|             0.000000        0.000000        0.000000

 ENERGY| Total FORCE_EVAL ( FIST ) energy (a.u.):             -0.207724269977856


 Centre of mass motion (COM):                            x =        0.0000000000
                                                         y =       -0.0000000000
                                                         z =       -0.0000000000

 *******************************************************************************
 ENSEMBLE TYPE                =                                              NVE
 STEP NUMBER                  =                                                3
 TIME [fs]                    =                                        15.000000
 CONSERVED QUANTITY [hartree] =                              -0.163316185701E+00

                                              INSTANTANEOUS             AVERAGES
 CPU TIME [s]                 =                        7.34                 9.90
 ENERGY DRIFT PER ATOM [K]    =         -0.480163317100E-02  -0.266777283588E-02
 POTENTIAL ENERGY[hartree]    =         -0.207724269978E+00  -0.207325880633E+00
 KINETIC ENERGY [hartree]     =          0.444080842772E-01   0.440102242811E-01
 TEMPERATURE [K]              =                      87.370               86.588
 *******************************************************************************

 MM DIPOLE [BERRY PHASE](A.U.)|                        0.000000        0.000000        0.000000
 MM DIPOLE [BERRY PHASE](Debye)|                       0.000000        0.000000        0.000000
 MM DIPOLE [BERRY PHASE] DERIVATIVE(A.U.)|             0.000000        0.000000        0.000000

 ENERGY| Total FORCE_EVAL ( FIST ) energy (a.u.):             -0.208102089175215


 Centre of mass motion (COM):                            x =        0.0000000000
                                                         y =        0.0000000000
                                                         z =       -0.0000000000

 *******************************************************************************
 ENSEMBLE TYPE                =                                              NVE
 STEP NUMBER                  =                                                4
 TIME [fs]                    =                                        20.000000
 CONSERVED QUANTITY [hartree] =                              -0.163316786226E+00

                                              INSTANTANEOUS             AVERAGES
 CPU TIME [s]                 =                        7.44                 9.28
 ENERGY DRIFT PER ATOM [K]    =         -0.655747401840E-02  -0.364019813151E-02
 POTENTIAL ENERGY[hartree]    =         -0.208102089175E+00  -0.207519932769E+00
 KINETIC ENERGY [hartree]     =          0.447853029488E-01   0.442039939480E-01
 TEMPERATURE [K]              =                      88.113               86.969
 *******************************************************************************

 MM DIPOLE [BERRY PHASE](A.U.)|                        0.000000        0.000000        0.000000
 MM DIPOLE [BERRY PHASE](Debye)|                       0.000000        0.000000        0.000000
 MM DIPOLE [BERRY PHASE] DERIVATIVE(A.U.)|             0.000000        0.000000        0.000000

 ENERGY| Total FORCE_EVAL ( FIST ) energy (a.u.):             -0.208454654886749


 Centre of mass motion (COM):                            x =        0.0000000000
                                                         y =        0.0000000000
                                                         z =       -0.0000000000

 *******************************************************************************
 ENSEMBLE TYPE                =                                              NVE
 STEP NUMBER                  =                                                5
 TIME [fs]                    =                                        25.000000
 CONSERVED QUANTITY [hartree] =                              -0.163317305554E+00

                                              INSTANTANEOUS             AVERAGES
 CPU TIME [s]                 =                        7.38                 8.90
 ENERGY DRIFT PER ATOM [K]    =         -0.807590457496E-02  -0.452733942020E-02
 POTENTIAL ENERGY[hartree]    =         -0.208454654887E+00  -0.207706877192E+00
 KINETIC ENERGY [hartree]     =          0.451373493327E-01   0.443906650249E-01
 TEMPERATURE [K]              =                      88.805               87.336
 *******************************************************************************

 MM DIPOLE [BERRY PHASE](A.U.)|                        0.000000        0.000000        0.000000
 MM DIPOLE [BERRY PHASE](Debye)|                       0.000000        0.000000        0.000000
 MM DIPOLE [BERRY PHASE] DERIVATIVE(A.U.)|             0.000000        0.000000        0.000000

 ENERGY| Total FORCE_EVAL ( FIST ) energy (a.u.):             -0.208775242699576


 Centre of mass motion (COM):                            x =        0.0000000000
                                                         y =        0.0000000000
                                                         z =       -0.0000000000

 *******************************************************************************
 ENSEMBLE TYPE                =                                              NVE
 STEP NUMBER                  =                                                6
 TIME [fs]                    =                                        30.000000
 CONSERVED QUANTITY [hartree] =                              -0.163317808926E+00

                                              INSTANTANEOUS             AVERAGES
 CPU TIME [s]                 =                        7.38                 8.65
 ENERGY DRIFT PER ATOM [K]    =         -0.954768346482E-02  -0.536406342764E-02
 POTENTIAL ENERGY[hartree]    =         -0.208775242700E+00  -0.207884938110E+00
 KINETIC ENERGY [hartree]     =          0.454574337735E-01   0.445684598164E-01
 TEMPERATURE [K]              =                      89.435               87.686
 *******************************************************************************

 MM DIPOLE [BERRY PHASE](A.U.)|                        0.000000        0.000000        0.000000
 MM DIPOLE [BERRY PHASE](Debye)|                       0.000000        0.000000        0.000000
 MM DIPOLE [BERRY PHASE] DERIVATIVE(A.U.)|             0.000000        0.000000        0.000000

 ENERGY| Total FORCE_EVAL ( FIST ) energy (a.u.):             -0.209057768738434


 Centre of mass motion (COM):                            x =        0.0000000000
                                                         y =        0.0000000000
                                                         z =       -0.0000000000

 *******************************************************************************
 ENSEMBLE TYPE                =                                              NVE
 STEP NUMBER                  =                                                7
 TIME [fs]                    =                                        35.000000
 CONSERVED QUANTITY [hartree] =                              -0.163318132441E+00

                                              INSTANTANEOUS             AVERAGES
 CPU TIME [s]                 =                        7.49                 8.48
 ENERGY DRIFT PER ATOM [K]    =         -0.104935903657E-01  -0.609685299021E-02
 POTENTIAL ENERGY[hartree]    =         -0.209057768738E+00  -0.208052485343E+00
 KINETIC ENERGY [hartree]     =          0.457396362970E-01   0.447357707422E-01
 TEMPERATURE [K]              =                      89.990               88.015
 *******************************************************************************

 MM DIPOLE [BERRY PHASE](A.U.)|                        0.000000        0.000000        0.000000
 MM DIPOLE [BERRY PHASE](Debye)|                       0.000000        0.000000        0.000000
 MM DIPOLE [BERRY PHASE] DERIVATIVE(A.U.)|             0.000000        0.000000        0.000000

 ENERGY| Total FORCE_EVAL ( FIST ) energy (a.u.):             -0.209297326138508


 Centre of mass motion (COM):                            x =        0.0000000000
                                                         y =        0.0000000000
                                                         z =       -0.0000000000

 *******************************************************************************
 ENSEMBLE TYPE                =                                              NVE
 STEP NUMBER                  =                                                8
 TIME [fs]                    =                                        40.000000
 CONSERVED QUANTITY [hartree] =                              -0.163318385680E+00

                                              INSTANTANEOUS             AVERAGES
 CPU TIME [s]                 =                        7.36                 8.34
 ENERGY DRIFT PER ATOM [K]    =         -0.112340187367E-01  -0.673899870853E-02
 POTENTIAL ENERGY[hartree]    =         -0.209297326139E+00  -0.208208090442E+00
 KINETIC ENERGY [hartree]     =          0.459789404587E-01   0.448911669567E-01
 TEMPERATURE [K]              =                      90.461               88.321
 *******************************************************************************

 MM DIPOLE [BERRY PHASE](A.U.)|                        0.000000        0.000000        0.000000
 MM DIPOLE [BERRY PHASE](Debye)|                       0.000000        0.000000        0.000000
 MM DIPOLE [BERRY PHASE] DERIVATIVE(A.U.)|             0.000000        0.000000        0.000000

 ENERGY| Total FORCE_EVAL ( FIST ) energy (a.u.):             -0.209490355282703


 Centre of mass motion (COM):                            x =        0.0000000000
                                                         y =       -0.0000000000
                                                         z =       -0.0000000000

 *******************************************************************************
 ENSEMBLE TYPE                =                                              NVE
 STEP NUMBER                  =                                                9
 TIME [fs]                    =                                        45.000000
 CONSERVED QUANTITY [hartree] =                              -0.163318508134E+00

                                              INSTANTANEOUS             AVERAGES
 CPU TIME [s]                 =                        7.39                 8.24
 ENERGY DRIFT PER ATOM [K]    =         -0.115920562926E-01  -0.727822732898E-02
 POTENTIAL ENERGY[hartree]    =         -0.209490355283E+00  -0.208350564313E+00
 KINETIC ENERGY [hartree]     =          0.461718471483E-01   0.450334647558E-01
 TEMPERATURE [K]              =                      90.840               88.601
 *******************************************************************************

 MM DIPOLE [BERRY PHASE](A.U.)|                        0.000000        0.000000        0.000000
 MM DIPOLE [BERRY PHASE](Debye)|                       0.000000        0.000000        0.000000
 MM DIPOLE [BERRY PHASE] DERIVATIVE(A.U.)|             0.000000        0.000000        0.000000

 ENERGY| Total FORCE_EVAL ( FIST ) energy (a.u.):             -0.209634929498703


 Centre of mass motion (COM):                            x =       -0.0000000000
                                                         y =        0.0000000000
                                                         z =       -0.0000000000

 *******************************************************************************
 ENSEMBLE TYPE                =                                              NVE
 STEP NUMBER                  =                                               10
 TIME [fs]                    =                                        50.000000
 CONSERVED QUANTITY [hartree] =                              -0.163318520037E+00

                                              INSTANTANEOUS             AVERAGES
 CPU TIME [s]                 =                        7.42                 8.15
 ENERGY DRIFT PER ATOM [K]    =         -0.116268576383E-01  -0.771309035991E-02
 POTENTIAL ENERGY[hartree]    =         -0.209634929499E+00  -0.208479000832E+00
 KINETIC ENERGY [hartree]     =          0.463164094616E-01   0.451617592264E-01
 TEMPERATURE [K]              =                      91.125               88.853
 *******************************************************************************

 MM DIPOLE [BERRY PHASE](A.U.)|                        0.000000        0.000000        0.000000
 MM DIPOLE [BERRY PHASE](Debye)|                       0.000000        0.000000        0.000000
 MM DIPOLE [BERRY PHASE] DERIVATIVE(A.U.)|             0.000000        0.000000        0.000000

 ENERGY| Total FORCE_EVAL ( FIST ) energy (a.u.):             -0.209730886476818


 Centre of mass motion (COM):                            x =        0.0000000000
                                                         y =        0.0000000000
                                                         z =       -0.0000000000

 *******************************************************************************
 ENSEMBLE TYPE                =                                              NVE
 STEP NUMBER                  =                                               11
 TIME [fs]                    =                                        55.000000
 CONSERVED QUANTITY [hartree] =                              -0.163318571319E+00

                                              INSTANTANEOUS             AVERAGES
 CPU TIME [s]                 =                        7.36                 8.08
 ENERGY DRIFT PER ATOM [K]    =         -0.117767969801E-01  -0.808251823448E-02
 POTENTIAL ENERGY[hartree]    =         -0.209730886477E+00  -0.208592808618E+00
 KINETIC ENERGY [hartree]     =          0.464123151581E-01   0.452754461293E-01
 TEMPERATURE [K]              =                      91.314               89.077
 *******************************************************************************

 MM DIPOLE [BERRY PHASE](A.U.)|                        0.000000        0.000000        0.000000
 MM DIPOLE [BERRY PHASE](Debye)|                       0.000000        0.000000        0.000000
 MM DIPOLE [BERRY PHASE] DERIVATIVE(A.U.)|             0.000000        0.000000        0.000000

 ENERGY| Total FORCE_EVAL ( FIST ) energy (a.u.):             -0.209779192958512


 Centre of mass motion (COM):                            x =        0.0000000000
                                                         y =       -0.0000000000
                                                         z =       -0.0000000000

 *******************************************************************************
 ENSEMBLE TYPE                =                                              NVE
 STEP NUMBER                  =                                               12
 TIME [fs]                    =                                        60.000000
 CONSERVED QUANTITY [hartree] =                              -0.163318544012E+00

                                              INSTANTANEOUS             AVERAGES
 CPU TIME [s]                 =                        7.40                 8.02
 ENERGY DRIFT PER ATOM [K]    =         -0.116969577100E-01  -0.838372152410E-02
 POTENTIAL ENERGY[hartree]    =         -0.209779192959E+00  -0.208691673980E+00
 KINETIC ENERGY [hartree]     =          0.464606489461E-01   0.453742130307E-01
 TEMPERATURE [K]              =                      91.409               89.271
 *******************************************************************************

 MM DIPOLE [BERRY PHASE](A.U.)|                        0.000000        0.000000        0.000000
 MM DIPOLE [BERRY PHASE](Debye)|                       0.000000        0.000000        0.000000
 MM DIPOLE [BERRY PHASE] DERIVATIVE(A.U.)|             0.000000        0.000000        0.000000

 ENERGY| Total FORCE_EVAL ( FIST ) energy (a.u.):             -0.209781873118618


 Centre of mass motion (COM):                            x =        0.0000000000
                                                         y =        0.0000000000
                                                         z =       -0.0000000000

 *******************************************************************************
 ENSEMBLE TYPE                =                                              NVE
 STEP NUMBER                  =                                               13
 TIME [fs]                    =                                        65.000000
 CONSERVED QUANTITY [hartree] =                              -0.163318419762E+00

                                              INSTANTANEOUS             AVERAGES
 CPU TIME [s]                 =                        7.41                 7.98
 ENERGY DRIFT PER ATOM [K]    =         -0.113336684462E-01  -0.861064051811E-02
 POTENTIAL ENERGY[hartree]    =         -0.209781873119E+00  -0.208775535452E+00
 KINETIC ENERGY [hartree]     =          0.464634533570E-01   0.454580007481E-01
 TEMPERATURE [K]              =                      91.414               89.436
 *******************************************************************************

 MM DIPOLE [BERRY PHASE](A.U.)|                        0.000000        0.000000        0.000000
 MM DIPOLE [BERRY PHASE](Debye)|                       0.000000        0.000000        0.000000
 MM DIPOLE [BERRY PHASE] DERIVATIVE(A.U.)|             0.000000        0.000000        0.000000

 ENERGY| Total FORCE_EVAL ( FIST ) energy (a.u.):             -0.209741702169304


 Centre of mass motion (COM):                            x =        0.0000000000
                                                         y =        0.0000000000
                                                         z =       -0.0000000000

 *******************************************************************************
 ENSEMBLE TYPE                =                                              NVE
 STEP NUMBER                  =                                               14
 TIME [fs]                    =                                        70.000000
 CONSERVED QUANTITY [hartree] =                              -0.163318222550E+00

                                              INSTANTANEOUS             AVERAGES
 CPU TIME [s]                 =                        7.42                 7.94
 ENERGY DRIFT PER ATOM [K]    =         -0.107570521994E-01  -0.876395563820E-02
 POTENTIAL ENERGY[hartree]    =         -0.209741702169E+00  -0.208844547360E+00
 KINETIC ENERGY [hartree]     =          0.464234796197E-01   0.455269635246E-01
 TEMPERATURE [K]              =                      91.336               89.572
 *******************************************************************************

 MM DIPOLE [BERRY PHASE](A.U.)|                        0.000000        0.000000        0.000000
 MM DIPOLE [BERRY PHASE](Debye)|                       0.000000        0.000000        0.000000
 MM DIPOLE [BERRY PHASE] DERIVATIVE(A.U.)|             0.000000        0.000000        0.000000

 ENERGY| Total FORCE_EVAL ( FIST ) energy (a.u.):             -0.209662000410021


 Centre of mass motion (COM):                            x =       -0.0000000000
                                                         y =        0.0000000000
                                                         z =       -0.0000000000

 *******************************************************************************
 ENSEMBLE TYPE                =                                              NVE
 STEP NUMBER                  =                                               15
 TIME [fs]                    =                                        75.000000
 CONSERVED QUANTITY [hartree] =                              -0.163317981288E+00

                                              INSTANTANEOUS             AVERAGES
 CPU TIME [s]                 =                        7.31                 7.90
 ENERGY DRIFT PER ATOM [K]    =         -0.100516407441E-01  -0.884980131193E-02
 POTENTIAL ENERGY[hartree]    =         -0.209662000410E+00  -0.208899044230E+00
 KINETIC ENERGY [hartree]     =          0.463440191224E-01   0.455814338978E-01
 TEMPERATURE [K]              =                      91.179               89.679
 *******************************************************************************

 MM DIPOLE [BERRY PHASE](A.U.)|                        0.000000        0.000000        0.000000
 MM DIPOLE [BERRY PHASE](Debye)|                       0.000000        0.000000        0.000000
 MM DIPOLE [BERRY PHASE] DERIVATIVE(A.U.)|             0.000000        0.000000        0.000000

 ENERGY| Total FORCE_EVAL ( FIST ) energy (a.u.):             -0.209546788256556


 Centre of mass motion (COM):                            x =        0.0000000000
                                                         y =        0.0000000000
                                                         z =       -0.0000000000

 *******************************************************************************
 ENSEMBLE TYPE                =                                              NVE
 STEP NUMBER                  =                                               16
 TIME [fs]                    =                                        80.000000
 CONSERVED QUANTITY [hartree] =                              -0.163317830612E+00

                                              INSTANTANEOUS             AVERAGES
 CPU TIME [s]                 =                        7.47                 7.87
 ENERGY DRIFT PER ATOM [K]    =         -0.961108883957E-02  -0.889738178240E-02
 POTENTIAL ENERGY[hartree]    =         -0.209546788257E+00  -0.208939528232E+00
 KINETIC ENERGY [hartree]     =          0.462289576448E-01   0.456219041320E-01
 TEMPERATURE [K]              =                      90.953               89.759
 *******************************************************************************

 MM DIPOLE [BERRY PHASE](A.U.)|                        0.000000        0.000000        0.000000
 MM DIPOLE [BERRY PHASE](Debye)|                       0.000000        0.000000        0.000000
 MM DIPOLE [BERRY PHASE] DERIVATIVE(A.U.)|             0.000000        0.000000        0.000000

 ENERGY| Total FORCE_EVAL ( FIST ) energy (a.u.):             -0.209400378524308


 Centre of mass motion (COM):                            x =       -0.0000000000
                                                         y =        0.0000000000
                                                         z =       -0.0000000000

 *******************************************************************************
 ENSEMBLE TYPE                =                                              NVE
 STEP NUMBER                  =                                               17
 TIME [fs]                    =                                        85.000000
 CONSERVED QUANTITY [hartree] =                              -0.163317665296E+00

                                              INSTANTANEOUS             AVERAGES
 CPU TIME [s]                 =                        7.27                 7.83
 ENERGY DRIFT PER ATOM [K]    =         -0.912773351591E-02  -0.891093188437E-02
 POTENTIAL ENERGY[hartree]    =         -0.209400378524E+00  -0.208966637073E+00
 KINETIC ENERGY [hartree]     =          0.460827132278E-01   0.456490105494E-01
 TEMPERATURE [K]              =                      90.665               89.812
 *******************************************************************************

 MM DIPOLE [BERRY PHASE](A.U.)|                        0.000000        0.000000        0.000000
 MM DIPOLE [BERRY PHASE](Debye)|                       0.000000        0.000000        0.000000
 MM DIPOLE [BERRY PHASE] DERIVATIVE(A.U.)|             0.000000        0.000000        0.000000

 ENERGY| Total FORCE_EVAL ( FIST ) energy (a.u.):             -0.209227036662200


 Centre of mass motion (COM):                            x =        0.0000000000
                                                         y =        0.0000000000
                                                         z =       -0.0000000000

 *******************************************************************************
 ENSEMBLE TYPE                =                                              NVE
 STEP NUMBER                  =                                               18
 TIME [fs]                    =                                        90.000000
 CONSERVED QUANTITY [hartree] =                              -0.163317385959E+00

                                              INSTANTANEOUS             AVERAGES
 CPU TIME [s]                 =                        7.46                 7.81
 ENERGY DRIFT PER ATOM [K]    =         -0.831099600566E-02  -0.887760211333E-02
 POTENTIAL ENERGY[hartree]    =         -0.209227036662E+00  -0.208981103716E+00
 KINETIC ENERGY [hartree]     =          0.459096507031E-01   0.456634905579E-01
 TEMPERATURE [K]              =                      90.325               89.840
 *******************************************************************************

 MM DIPOLE [BERRY PHASE](A.U.)|                        0.000000        0.000000        0.000000
 MM DIPOLE [BERRY PHASE](Debye)|                       0.000000        0.000000        0.000000
 MM DIPOLE [BERRY PHASE] DERIVATIVE(A.U.)|             0.000000        0.000000        0.000000

 ENERGY| Total FORCE_EVAL ( FIST ) energy (a.u.):             -0.209031392970790


 Centre of mass motion (COM):                            x =        0.0000000000
                                                         y =        0.0000000000
                                                         z =       -0.0000000000

 *******************************************************************************
 ENSEMBLE TYPE                =                                              NVE
 STEP NUMBER                  =                                               19
 TIME [fs]                    =                                        95.000000
 CONSERVED QUANTITY [hartree] =                              -0.163317121225E+00

                                              INSTANTANEOUS             AVERAGES
 CPU TIME [s]                 =                        7.44                 7.79
 ENERGY DRIFT PER ATOM [K]    =         -0.753695668114E-02  -0.880704182743E-02
 POTENTIAL ENERGY[hartree]    =         -0.209031392971E+00  -0.208983750519E+00
 KINETIC ENERGY [hartree]     =          0.457142717455E-01   0.456661632520E-01
 TEMPERATURE [K]              =                      89.940               89.846
 *******************************************************************************

 MM DIPOLE [BERRY PHASE](A.U.)|                        0.000000        0.000000        0.000000
 MM DIPOLE [BERRY PHASE](Debye)|                       0.000000        0.000000        0.000000
 MM DIPOLE [BERRY PHASE] DERIVATIVE(A.U.)|             0.000000        0.000000        0.000000

 ENERGY| Total FORCE_EVAL ( FIST ) energy (a.u.):             -0.208818059261684


 Centre of mass motion (COM):                            x =       -0.0000000000
                                                         y =        0.0000000000
                                                         z =       -0.0000000000

 *******************************************************************************
 ENSEMBLE TYPE                =                                              NVE
 STEP NUMBER                  =                                               20
 TIME [fs]                    =                                       100.000000
 CONSERVED QUANTITY [hartree] =                              -0.163316790629E+00

                                              INSTANTANEOUS             AVERAGES
 CPU TIME [s]                 =                        7.29                 7.77
 ENERGY DRIFT PER ATOM [K]    =         -0.657034554750E-02  -0.869520701343E-02
 POTENTIAL ENERGY[hartree]    =         -0.208818059262E+00  -0.208975465956E+00
 KINETIC ENERGY [hartree]     =          0.455012686330E-01   0.456579185211E-01
 TEMPERATURE [K]              =                      89.521               89.829
 *******************************************************************************

 MM DIPOLE [BERRY PHASE](A.U.)|                        0.000000        0.000000        0.000000
 MM DIPOLE [BERRY PHASE](Debye)|                       0.000000        0.000000        0.000000
 MM DIPOLE [BERRY PHASE] DERIVATIVE(A.U.)|             0.000000        0.000000        0.000000

 ENERGY| Total FORCE_EVAL ( FIST ) energy (a.u.):             -0.208592069634904


 Centre of mass motion (COM):                            x =       -0.0000000000
                                                         y =        0.0000000000
                                                         z =       -0.0000000000

 *******************************************************************************
 ENSEMBLE TYPE                =                                              NVE
 STEP NUMBER                  =                                               21
 TIME [fs]                    =                                       105.000000
 CONSERVED QUANTITY [hartree] =                              -0.163316447250E+00

                                              INSTANTANEOUS             AVERAGES
 CPU TIME [s]                 =                        7.51                 7.76
 ENERGY DRIFT PER ATOM [K]    =         -0.556636057465E-02  -0.854621432587E-02
 POTENTIAL ENERGY[hartree]    =         -0.208592069635E+00  -0.208957208989E+00
 KINETIC ENERGY [hartree]     =          0.452756223852E-01   0.456397139432E-01
 TEMPERATURE [K]              =                      89.077               89.794
 *******************************************************************************

 MM DIPOLE [BERRY PHASE](A.U.)|                        0.000000        0.000000        0.000000
 MM DIPOLE [BERRY PHASE](Debye)|                       0.000000        0.000000        0.000000
 MM DIPOLE [BERRY PHASE] DERIVATIVE(A.U.)|             0.000000        0.000000        0.000000

 ENERGY| Total FORCE_EVAL ( FIST ) energy (a.u.):             -0.208358829563452


 Centre of mass motion (COM):                            x =        0.0000000000
                                                         y =        0.0000000000
                                                         z =       -0.0000000000

 *******************************************************************************
 ENSEMBLE TYPE                =                                              NVE
 STEP NUMBER                  =                                               22
 TIME [fs]                    =                                       110.000000
 CONSERVED QUANTITY [hartree] =                              -0.163316204704E+00

                                              INSTANTANEOUS             AVERAGES
 CPU TIME [s]                 =                        7.44                 7.74
 ENERGY DRIFT PER ATOM [K]    =         -0.485719671214E-02  -0.837853170707E-02
 POTENTIAL ENERGY[hartree]    =         -0.208358829563E+00  -0.208930009924E+00
 KINETIC ENERGY [hartree]     =          0.450426248591E-01   0.456125735303E-01
 TEMPERATURE [K]              =                      88.619               89.740
 *******************************************************************************

 MM DIPOLE [BERRY PHASE](A.U.)|                        0.000000        0.000000        0.000000
 MM DIPOLE [BERRY PHASE](Debye)|                       0.000000        0.000000        0.000000
 MM DIPOLE [BERRY PHASE] DERIVATIVE(A.U.)|             0.000000        0.000000        0.000000

 ENERGY| Total FORCE_EVAL ( FIST ) energy (a.u.):             -0.208123389801229


 Centre of mass motion (COM):                            x =        0.0000000000
                                                         y =       -0.0000000000
                                                         z =       -0.0000000000

 *******************************************************************************
 ENSEMBLE TYPE                =                                              NVE
 STEP NUMBER                  =                                               23
 TIME [fs]                    =                                       115.000000
 CONSERVED QUANTITY [hartree] =                              -0.163315883086E+00

                                              INSTANTANEOUS             AVERAGES
 CPU TIME [s]                 =                        7.29                 7.72
 ENERGY DRIFT PER ATOM [K]    =         -0.391683676891E-02  -0.818454497062E-02
 POTENTIAL ENERGY[hartree]    =         -0.208123389801E+00  -0.208894939484E+00
 KINETIC ENERGY [hartree]     =          0.448075067151E-01   0.455775706252E-01
 TEMPERATURE [K]              =                      88.156               89.671
 *******************************************************************************

 MM DIPOLE [BERRY PHASE](A.U.)|                        0.000000        0.000000        0.000000
 MM DIPOLE [BERRY PHASE](Debye)|                       0.000000        0.000000        0.000000
 MM DIPOLE [BERRY PHASE] DERIVATIVE(A.U.)|             0.000000        0.000000        0.000000

 ENERGY| Total FORCE_EVAL ( FIST ) energy (a.u.):             -0.207891178777384


 Centre of mass motion (COM):                            x =        0.0000000000
                                                         y =       -0.0000000000
                                                         z =       -0.0000000000

 *******************************************************************************
 ENSEMBLE TYPE                =                                              NVE
 STEP NUMBER                  =                                               24
 TIME [fs]                    =                                       120.000000
 CONSERVED QUANTITY [hartree] =                              -0.163315579028E+00

                                              INSTANTANEOUS             AVERAGES
 CPU TIME [s]                 =                        7.45                 7.71
 ENERGY DRIFT PER ATOM [K]    =         -0.302781843200E-02  -0.796968136485E-02
 POTENTIAL ENERGY[hartree]    =         -0.207891178777E+00  -0.208853116121E+00
 KINETIC ENERGY [hartree]     =          0.445755997498E-01   0.455358218388E-01
 TEMPERATURE [K]              =                      87.700               89.589
 *******************************************************************************

 MM DIPOLE [BERRY PHASE](A.U.)|                        0.000000        0.000000        0.000000
 MM DIPOLE [BERRY PHASE](Debye)|                       0.000000        0.000000        0.000000
 MM DIPOLE [BERRY PHASE] DERIVATIVE(A.U.)|             0.000000        0.000000        0.000000

 ENERGY| Total FORCE_EVAL ( FIST ) energy (a.u.):             -0.207667509601586


 Centre of mass motion (COM):                            x =        0.0000000000
                                                         y =        0.0000000000
                                                         z =       -0.0000000000

 *******************************************************************************
 ENSEMBLE TYPE                =                                              NVE
 STEP NUMBER                  =                                               25
 TIME [fs]                    =                                       125.000000
 CONSERVED QUANTITY [hartree] =                              -0.163315326078E+00

                                              INSTANTANEOUS             AVERAGES
 CPU TIME [s]                 =                        7.43                 7.70
 ENERGY DRIFT PER ATOM [K]    =         -0.228823338217E-02  -0.774242344554E-02
 POTENTIAL ENERGY[hartree]    =         -0.207667509602E+00  -0.208805691860E+00
 KINETIC ENERGY [hartree]     =          0.443521835240E-01   0.454884763062E-01
 TEMPERATURE [K]              =                      87.260               89.496
 *******************************************************************************

 MM DIPOLE [BERRY PHASE](A.U.)|                        0.000000        0.000000        0.000000
 MM DIPOLE [BERRY PHASE](Debye)|                       0.000000        0.000000        0.000000
 MM DIPOLE [BERRY PHASE] DERIVATIVE(A.U.)|             0.000000        0.000000        0.000000

 ENERGY| Total FORCE_EVAL ( FIST ) energy (a.u.):             -0.207457360213817


 Centre of mass motion (COM):                            x =       -0.0000000000
                                                         y =       -0.0000000000
                                                         z =       -0.0000000000

 *******************************************************************************
 ENSEMBLE TYPE                =                                              NVE
 STEP NUMBER                  =                                               26
 TIME [fs]                    =                                       130.000000
 CONSERVED QUANTITY [hartree] =                              -0.163315014394E+00

                                              INSTANTANEOUS             AVERAGES
 CPU TIME [s]                 =                        7.38                 7.69
 ENERGY DRIFT PER ATOM [K]    =         -0.137692054979E-02  -0.749759641109E-02
 POTENTIAL ENERGY[hartree]    =         -0.207457360214E+00  -0.208753832951E+00
 KINETIC ENERGY [hartree]     =          0.441423458198E-01   0.454367020567E-01
 TEMPERATURE [K]              =                      86.848               89.394
 *******************************************************************************

 MM DIPOLE [BERRY PHASE](A.U.)|                        0.000000        0.000000        0.000000
 MM DIPOLE [BERRY PHASE](Debye)|                       0.000000        0.000000        0.000000
 MM DIPOLE [BERRY PHASE] DERIVATIVE(A.U.)|             0.000000        0.000000        0.000000

 ENERGY| Total FORCE_EVAL ( FIST ) energy (a.u.):             -0.207265483289413


 Centre of mass motion (COM):                            x =       -0.0000000000
                                                         y =        0.0000000000
                                                         z =       -0.0000000000

 *******************************************************************************
 ENSEMBLE TYPE                =                                              NVE
 STEP NUMBER                  =                                               27
 TIME [fs]                    =                                       135.000000
 CONSERVED QUANTITY [hartree] =                              -0.163314790842E+00

                                              INSTANTANEOUS             AVERAGES
 CPU TIME [s]                 =                        7.36                 7.68
 ENERGY DRIFT PER ATOM [K]    =         -0.723290451258E-03  -0.724669619036E-02
 POTENTIAL ENERGY[hartree]    =         -0.207265483289E+00  -0.208698708889E+00
 KINETIC ENERGY [hartree]     =          0.439506924474E-01   0.453816646638E-01
 TEMPERATURE [K]              =                      86.470               89.286
 *******************************************************************************

 MM DIPOLE [BERRY PHASE](A.U.)|                        0.000000        0.000000        0.000000
 MM DIPOLE [BERRY PHASE](Debye)|                       0.000000        0.000000        0.000000
 MM DIPOLE [BERRY PHASE] DERIVATIVE(A.U.)|             0.000000        0.000000        0.000000

 ENERGY| Total FORCE_EVAL ( FIST ) energy (a.u.):             -0.207095878546300


 Centre of mass motion (COM):                            x =       -0.0000000000
                                                         y =        0.0000000000
                                                         z =       -0.0000000000

 *******************************************************************************
 ENSEMBLE TYPE                =                                              NVE
 STEP NUMBER                  =                                               28
 TIME [fs]                    =                                       140.000000
 CONSERVED QUANTITY [hartree] =                              -0.163314675018E+00

                                              INSTANTANEOUS             AVERAGES
 CPU TIME [s]                 =                        7.46                 7.67
 ENERGY DRIFT PER ATOM [K]    =         -0.384639248053E-03  -0.700162272813E-02
 POTENTIAL ENERGY[hartree]    =         -0.207095878546E+00  -0.208641464948E+00
 KINETIC ENERGY [hartree]     =          0.437812035285E-01   0.453245053375E-01
 TEMPERATURE [K]              =                      86.137               89.173
 *******************************************************************************

 MM DIPOLE [BERRY PHASE](A.U.)|                        0.000000        0.000000        0.000000
 MM DIPOLE [BERRY PHASE](Debye)|                       0.000000        0.000000        0.000000
 MM DIPOLE [BERRY PHASE] DERIVATIVE(A.U.)|             0.000000        0.000000        0.000000

 ENERGY| Total FORCE_EVAL ( FIST ) energy (a.u.):             -0.206951658852696


 Centre of mass motion (COM):                            x =       -0.0000000000
                                                         y =        0.0000000000
                                                         z =       -0.0000000000

 *******************************************************************************
 ENSEMBLE TYPE                =                                              NVE
 STEP NUMBER                  =                                               29
 TIME [fs]                    =                                       145.000000
 CONSERVED QUANTITY [hartree] =                              -0.163314590226E+00

                                              INSTANTANEOUS             AVERAGES
 CPU TIME [s]                 =                        7.38                 7.66
 ENERGY DRIFT PER ATOM [K]    =         -0.136722394351E-03  -0.676490202697E-02
 POTENTIAL ENERGY[hartree]    =         -0.206951658853E+00  -0.208583195773E+00
 KINETIC ENERGY [hartree]     =          0.436370686264E-01   0.452663178647E-01
 TEMPERATURE [K]              =                      85.853               89.059
 *******************************************************************************

 MM DIPOLE [BERRY PHASE](A.U.)|                        0.000000        0.000000        0.000000
 MM DIPOLE [BERRY PHASE](Debye)|                       0.000000        0.000000        0.000000
 MM DIPOLE [BERRY PHASE] DERIVATIVE(A.U.)|             0.000000        0.000000        0.000000

 ENERGY| Total FORCE_EVAL ( FIST ) energy (a.u.):             -0.206835012863463


 Centre of mass motion (COM):                            x =       -0.0000000000
                                                         y =        0.0000000000
                                                         z =       -0.0000000000

 *******************************************************************************
 ENSEMBLE TYPE                =                                              NVE
 STEP NUMBER                  =                                               30
 TIME [fs]                    =                                       150.000000
 CONSERVED QUANTITY [hartree] =                              -0.163314474269E+00

                                              INSTANTANEOUS             AVERAGES
 CPU TIME [s]                 =                        7.34                 7.65
 ENERGY DRIFT PER ATOM [K]    =          0.202317322574E-03  -0.653266138198E-02
 POTENTIAL ENERGY[hartree]    =         -0.206835012863E+00  -0.208524923009E+00
 KINETIC ENERGY [hartree]     =          0.435205385942E-01   0.452081252224E-01
 TEMPERATURE [K]              =                      85.624               88.944
 *******************************************************************************

 MM DIPOLE [BERRY PHASE](A.U.)|                        0.000000        0.000000        0.000000
 MM DIPOLE [BERRY PHASE](Debye)|                       0.000000        0.000000        0.000000
 MM DIPOLE [BERRY PHASE] DERIVATIVE(A.U.)|             0.000000        0.000000        0.000000

 ENERGY| Total FORCE_EVAL ( FIST ) energy (a.u.):             -0.206747349136934


 Centre of mass motion (COM):                            x =       -0.0000000000
                                                         y =        0.0000000000
                                                         z =       -0.0000000000

 *******************************************************************************
 ENSEMBLE TYPE                =                                              NVE
 STEP NUMBER                  =                                               31
 TIME [fs]                    =                                       155.000000
 CONSERVED QUANTITY [hartree] =                              -0.163314438968E+00

                                              INSTANTANEOUS             AVERAGES
 CPU TIME [s]                 =                        7.47                 7.64
 ENERGY DRIFT PER ATOM [K]    =          0.305533318654E-03  -0.631207445615E-02
 POTENTIAL ENERGY[hartree]    =         -0.206747349137E+00  -0.208467581916E+00
 KINETIC ENERGY [hartree]     =          0.434329101692E-01   0.451508602206E-01
 TEMPERATURE [K]              =                      85.452               88.832
 *******************************************************************************

 MM DIPOLE [BERRY PHASE](A.U.)|                        0.000000        0.000000        0.000000
 MM DIPOLE [BERRY PHASE](Debye)|                       0.000000        0.000000        0.000000
 MM DIPOLE [BERRY PHASE] DERIVATIVE(A.U.)|             0.000000        0.000000        0.000000

 ENERGY| Total FORCE_EVAL ( FIST ) energy (a.u.):             -0.206689080103742


 Centre of mass motion (COM):                            x =        0.0000000000
                                                         y =        0.0000000000
                                                         z =        0.0000000000

 *******************************************************************************
 ENSEMBLE TYPE                =                                              NVE
 STEP NUMBER                  =                                               32
 TIME [fs]                    =                                       160.000000
 CONSERVED QUANTITY [hartree] =                              -0.163314517593E+00

                                              INSTANTANEOUS             AVERAGES
 CPU TIME [s]                 =                        7.33                 7.63
 ENERGY DRIFT PER ATOM [K]    =          0.756460475374E-04  -0.611245819041E-02
 POTENTIAL ENERGY[hartree]    =         -0.206689080104E+00  -0.208412003735E+00
 KINETIC ENERGY [hartree]     =          0.433745625109E-01   0.450953509172E-01
 TEMPERATURE [K]              =                      85.337               88.723
 *******************************************************************************

 MM DIPOLE [BERRY PHASE](A.U.)|                        0.000000        0.000000        0.000000
 MM DIPOLE [BERRY PHASE](Debye)|                       0.000000        0.000000        0.000000
 MM DIPOLE [BERRY PHASE] DERIVATIVE(A.U.)|             0.000000        0.000000        0.000000

 ENERGY| Total FORCE_EVAL ( FIST ) energy (a.u.):             -0.206659903774722


 Centre of mass motion (COM):                            x =       -0.0000000000
                                                         y =        0.0000000000
                                                         z =        0.0000000000

 *******************************************************************************
 ENSEMBLE TYPE                =                                              NVE
 STEP NUMBER                  =                                               33
 TIME [fs]                    =                                       165.000000
 CONSERVED QUANTITY [hartree] =                              -0.163314743305E+00

                                              INSTANTANEOUS             AVERAGES
 CPU TIME [s]                 =                        7.43                 7.63
 ENERGY DRIFT PER ATOM [K]    =         -0.584300901193E-03  -0.594493827256E-02
 POTENTIAL ENERGY[hartree]    =         -0.206659903775E+00  -0.208358909797E+00
 KINETIC ENERGY [hartree]     =          0.433451604694E-01   0.450423148430E-01
 TEMPERATURE [K]              =                      85.279               88.618
 *******************************************************************************

 MM DIPOLE [BERRY PHASE](A.U.)|                        0.000000        0.000000        0.000000
 MM DIPOLE [BERRY PHASE](Debye)|                       0.000000        0.000000        0.000000
 MM DIPOLE [BERRY PHASE] DERIVATIVE(A.U.)|             0.000000        0.000000        0.000000

 ENERGY| Total FORCE_EVAL ( FIST ) energy (a.u.):             -0.206658302556856


 Centre of mass motion (COM):                            x =       -0.0000000000
                                                         y =        0.0000000000
                                                         z =        0.0000000000

 *******************************************************************************
 ENSEMBLE TYPE                =                                              NVE
 STEP NUMBER                  =                                               34
 TIME [fs]                    =                                       170.000000
 CONSERVED QUANTITY [hartree] =                              -0.163314933370E+00

                                              INSTANTANEOUS             AVERAGES
 CPU TIME [s]                 =                        7.42                 7.62
 ENERGY DRIFT PER ATOM [K]    =         -0.114001993144E-02  -0.580361714488E-02
 POTENTIAL ENERGY[hartree]    =         -0.206658302557E+00  -0.208308891937E+00
 KINETIC ENERGY [hartree]     =          0.433433691867E-01   0.449923458531E-01
 TEMPERATURE [K]              =                      85.276               88.520
 *******************************************************************************

 MM DIPOLE [BERRY PHASE](A.U.)|                        0.000000        0.000000        0.000000
 MM DIPOLE [BERRY PHASE](Debye)|                       0.000000        0.000000        0.000000
 MM DIPOLE [BERRY PHASE] DERIVATIVE(A.U.)|             0.000000        0.000000        0.000000

 ENERGY| Total FORCE_EVAL ( FIST ) energy (a.u.):             -0.206682120206162


 Centre of mass motion (COM):                            x =       -0.0000000000
                                                         y =        0.0000000000
                                                         z =        0.0000000000

 *******************************************************************************
 ENSEMBLE TYPE                =                                              NVE
 STEP NUMBER                  =                                               35
 TIME [fs]                    =                                       175.000000
 CONSERVED QUANTITY [hartree] =                              -0.163315159390E+00

                                              INSTANTANEOUS             AVERAGES
 CPU TIME [s]                 =                        7.41                 7.61
 ENERGY DRIFT PER ATOM [K]    =         -0.180086453263E-02  -0.568925278453E-02
 POTENTIAL ENERGY[hartree]    =         -0.206682120206E+00  -0.208262412744E+00
 KINETIC ENERGY [hartree]     =          0.433669608165E-01   0.449459062807E-01
 TEMPERATURE [K]              =                      85.322               88.429
 *******************************************************************************

 MM DIPOLE [BERRY PHASE](A.U.)|                        0.000000        0.000000        0.000000
 MM DIPOLE [BERRY PHASE](Debye)|                       0.000000        0.000000        0.000000
 MM DIPOLE [BERRY PHASE] DERIVATIVE(A.U.)|             0.000000        0.000000        0.000000

 ENERGY| Total FORCE_EVAL ( FIST ) energy (a.u.):             -0.206728178622290


 Centre of mass motion (COM):                            x =       -0.0000000000
                                                         y =        0.0000000000
                                                         z =       -0.0000000000

 *******************************************************************************
[...]
 *******************************************************************************

 MM DIPOLE [BERRY PHASE](A.U.)|                        0.000000        0.000000        0.000000
 MM DIPOLE [BERRY PHASE](Debye)|                       0.000000        0.000000        0.000000
 MM DIPOLE [BERRY PHASE] DERIVATIVE(A.U.)|             0.000000        0.000000        0.000000

 ENERGY| Total FORCE_EVAL ( FIST ) energy (a.u.):             -0.210608103040678


 Centre of mass motion (COM):                            x =       -0.0000000000
                                                         y =        0.0000000000
                                                         z =        0.0000000000

 *******************************************************************************
 ENSEMBLE TYPE                =                                              NVE
 STEP NUMBER                  =                                               92
 TIME [fs]                    =                                       460.000000
 CONSERVED QUANTITY [hartree] =                              -0.163314902097E+00

                                              INSTANTANEOUS             AVERAGES
 CPU TIME [s]                 =                        1.90                 2.00
 ENERGY DRIFT PER ATOM [K]    =         -0.104858363159E-02  -0.617341800585E-02
 POTENTIAL ENERGY[hartree]    =         -0.210608103041E+00  -0.208837915530E+00
 KINETIC ENERGY [hartree]     =          0.472932009432E-01   0.455212541204E-01
 TEMPERATURE [K]              =                      93.047               89.560
 *******************************************************************************

 MM DIPOLE [BERRY PHASE](A.U.)|                        0.000000        0.000000        0.000000
 MM DIPOLE [BERRY PHASE](Debye)|                       0.000000        0.000000        0.000000
 MM DIPOLE [BERRY PHASE] DERIVATIVE(A.U.)|             0.000000        0.000000        0.000000

 ENERGY| Total FORCE_EVAL ( FIST ) energy (a.u.):             -0.210642480627027


 Centre of mass motion (COM):                            x =       -0.0000000000
                                                         y =        0.0000000000
                                                         z =        0.0000000000

 *******************************************************************************
 ENSEMBLE TYPE                =                                              NVE
 STEP NUMBER                  =                                               93
 TIME [fs]                    =                                       465.000000
 CONSERVED QUANTITY [hartree] =                              -0.163314999129E+00

                                              INSTANTANEOUS             AVERAGES
 CPU TIME [s]                 =                        1.85                 2.00
 ENERGY DRIFT PER ATOM [K]    =         -0.133228891046E-02  -0.612136285428E-02
 POTENTIAL ENERGY[hartree]    =         -0.210642480627E+00  -0.208857319456E+00
 KINETIC ENERGY [hartree]     =          0.473274814978E-01   0.455406759201E-01
 TEMPERATURE [K]              =                      93.114               89.599
 *******************************************************************************

 MM DIPOLE [BERRY PHASE](A.U.)|                        0.000000        0.000000        0.000000
 MM DIPOLE [BERRY PHASE](Debye)|                       0.000000        0.000000        0.000000
 MM DIPOLE [BERRY PHASE] DERIVATIVE(A.U.)|             0.000000        0.000000        0.000000

 ENERGY| Total FORCE_EVAL ( FIST ) energy (a.u.):             -0.210697415766291


 Centre of mass motion (COM):                            x =       -0.0000000000
                                                         y =        0.0000000000
                                                         z =        0.0000000000

 *******************************************************************************
 ENSEMBLE TYPE                =                                              NVE
 STEP NUMBER                  =                                               94
 TIME [fs]                    =                                       470.000000
 CONSERVED QUANTITY [hartree] =                              -0.163315226654E+00

                                              INSTANTANEOUS             AVERAGES
 CPU TIME [s]                 =                        1.80                 1.99
 ENERGY DRIFT PER ATOM [K]    =         -0.199753423713E-02  -0.607749233708E-02
 POTENTIAL ENERGY[hartree]    =         -0.210697415766E+00  -0.208876894949E+00
 KINETIC ENERGY [hartree]     =          0.473821891125E-01   0.455602664860E-01
 TEMPERATURE [K]              =                      93.222               89.637
 *******************************************************************************

 MM DIPOLE [BERRY PHASE](A.U.)|                        0.000000        0.000000        0.000000
 MM DIPOLE [BERRY PHASE](Debye)|                       0.000000        0.000000        0.000000
 MM DIPOLE [BERRY PHASE] DERIVATIVE(A.U.)|             0.000000        0.000000        0.000000

 ENERGY| Total FORCE_EVAL ( FIST ) energy (a.u.):             -0.210769615720202


 Centre of mass motion (COM):                            x =       -0.0000000000
                                                         y =        0.0000000000
                                                         z =        0.0000000000

 *******************************************************************************
 ENSEMBLE TYPE                =                                              NVE
 STEP NUMBER                  =                                               95
 TIME [fs]                    =                                       475.000000
 CONSERVED QUANTITY [hartree] =                              -0.163315508312E+00

                                              INSTANTANEOUS             AVERAGES
 CPU TIME [s]                 =                        1.97                 1.99
 ENERGY DRIFT PER ATOM [K]    =         -0.282105810923E-02  -0.604321408205E-02
 POTENTIAL ENERGY[hartree]    =         -0.210769615720E+00  -0.208896818325E+00
 KINETIC ENERGY [hartree]     =          0.474541074080E-01   0.455802016536E-01
 TEMPERATURE [K]              =                      93.363               89.676
 *******************************************************************************

 MM DIPOLE [BERRY PHASE](A.U.)|                        0.000000        0.000000        0.000000
 MM DIPOLE [BERRY PHASE](Debye)|                       0.000000        0.000000        0.000000
 MM DIPOLE [BERRY PHASE] DERIVATIVE(A.U.)|             0.000000        0.000000        0.000000

 ENERGY| Total FORCE_EVAL ( FIST ) energy (a.u.):             -0.210854954222841


 Centre of mass motion (COM):                            x =       -0.0000000000
                                                         y =        0.0000000000
                                                         z =        0.0000000000

 *******************************************************************************
 ENSEMBLE TYPE                =                                              NVE
 STEP NUMBER                  =                                               96
 TIME [fs]                    =                                       480.000000
 CONSERVED QUANTITY [hartree] =                              -0.163315777572E+00

                                              INSTANTANEOUS             AVERAGES
 CPU TIME [s]                 =                        2.02                 1.99
 ENERGY DRIFT PER ATOM [K]    =         -0.360832922450E-02  -0.601785069812E-02
 POTENTIAL ENERGY[hartree]    =         -0.210854954223E+00  -0.208917215574E+00
 KINETIC ENERGY [hartree]     =          0.475391766513E-01   0.456006076431E-01
 TEMPERATURE [K]              =                      93.531               89.717
 *******************************************************************************

 MM DIPOLE [BERRY PHASE](A.U.)|                        0.000000        0.000000        0.000000
 MM DIPOLE [BERRY PHASE](Debye)|                       0.000000        0.000000        0.000000
 MM DIPOLE [BERRY PHASE] DERIVATIVE(A.U.)|             0.000000        0.000000        0.000000

 ENERGY| Total FORCE_EVAL ( FIST ) energy (a.u.):             -0.210948999571643


 Centre of mass motion (COM):                            x =       -0.0000000000
                                                         y =        0.0000000000
                                                         z =        0.0000000000

 *******************************************************************************
 ENSEMBLE TYPE                =                                              NVE
 STEP NUMBER                  =                                               97
 TIME [fs]                    =                                       485.000000
 CONSERVED QUANTITY [hartree] =                              -0.163316123672E+00

                                              INSTANTANEOUS             AVERAGES
 CPU TIME [s]                 =                        2.10                 2.00
 ENERGY DRIFT PER ATOM [K]    =         -0.462027185190E-02  -0.600344266877E-02
 POTENTIAL ENERGY[hartree]    =         -0.210948999572E+00  -0.208938161801E+00
 KINETIC ENERGY [hartree]     =          0.476328758994E-01   0.456215588623E-01
 TEMPERATURE [K]              =                      93.715               89.758
 *******************************************************************************

 MM DIPOLE [BERRY PHASE](A.U.)|                        0.000000        0.000000        0.000000
 MM DIPOLE [BERRY PHASE](Debye)|                       0.000000        0.000000        0.000000
 MM DIPOLE [BERRY PHASE] DERIVATIVE(A.U.)|             0.000000        0.000000        0.000000

 ENERGY| Total FORCE_EVAL ( FIST ) energy (a.u.):             -0.211046288710652


 Centre of mass motion (COM):                            x =       -0.0000000000
                                                         y =        0.0000000000
                                                         z =        0.0000000000

 *******************************************************************************
 ENSEMBLE TYPE                =                                              NVE
 STEP NUMBER                  =                                               98
 TIME [fs]                    =                                       490.000000
 CONSERVED QUANTITY [hartree] =                              -0.163316409301E+00

                                              INSTANTANEOUS             AVERAGES
 CPU TIME [s]                 =                        1.84                 1.99
 ENERGY DRIFT PER ATOM [K]    =         -0.545540567906E-02  -0.599785045459E-02
 POTENTIAL ENERGY[hartree]    =         -0.211046288711E+00  -0.208959673300E+00
 KINETIC ENERGY [hartree]     =          0.477298794093E-01   0.456430723373E-01
 TEMPERATURE [K]              =                      93.906               89.800
 *******************************************************************************

 MM DIPOLE [BERRY PHASE](A.U.)|                        0.000000        0.000000        0.000000
 MM DIPOLE [BERRY PHASE](Debye)|                       0.000000        0.000000        0.000000
 MM DIPOLE [BERRY PHASE] DERIVATIVE(A.U.)|             0.000000        0.000000        0.000000

 ENERGY| Total FORCE_EVAL ( FIST ) energy (a.u.):             -0.211141556893154


 Centre of mass motion (COM):                            x =       -0.0000000000
                                                         y =        0.0000000000
                                                         z =        0.0000000000

 *******************************************************************************
 ENSEMBLE TYPE                =                                              NVE
 STEP NUMBER                  =                                               99
 TIME [fs]                    =                                       495.000000
 CONSERVED QUANTITY [hartree] =                              -0.163316729949E+00

                                              INSTANTANEOUS             AVERAGES
 CPU TIME [s]                 =                        1.94                 1.99
 ENERGY DRIFT PER ATOM [K]    =         -0.639292882223E-02  -0.600184114518E-02
 POTENTIAL ENERGY[hartree]    =         -0.211141556893E+00  -0.208981712528E+00
 KINETIC ENERGY [hartree]     =          0.478248269438E-01   0.456651102626E-01
 TEMPERATURE [K]              =                      94.093               89.844
 *******************************************************************************

 MM DIPOLE [BERRY PHASE](A.U.)|                        0.000000        0.000000        0.000000
 MM DIPOLE [BERRY PHASE](Debye)|                       0.000000        0.000000        0.000000
 MM DIPOLE [BERRY PHASE] DERIVATIVE(A.U.)|             0.000000        0.000000        0.000000

 ENERGY| Total FORCE_EVAL ( FIST ) energy (a.u.):             -0.211229963864252


 Centre of mass motion (COM):                            x =       -0.0000000000
                                                         y =        0.0000000000
                                                         z =        0.0000000000

 *******************************************************************************
 ENSEMBLE TYPE                =                                              NVE
 STEP NUMBER                  =                                              100
 TIME [fs]                    =                                       500.000000
 CONSERVED QUANTITY [hartree] =                              -0.163317038305E+00

                                              INSTANTANEOUS             AVERAGES
 CPU TIME [s]                 =                        2.00                 1.99
 ENERGY DRIFT PER ATOM [K]    =         -0.729451232604E-02  -0.601476785698E-02
 POTENTIAL ENERGY[hartree]    =         -0.211229963864E+00  -0.209004195042E+00
 KINETIC ENERGY [hartree]     =          0.479129255589E-01   0.456875884155E-01
 TEMPERATURE [K]              =                      94.266               89.888
 *******************************************************************************


 -------------------------------------------------------------------------------
 -                                                                             -
 -                                DBCSR STATISTICS                             -
 -                                                                             -
 -------------------------------------------------------------------------------
 COUNTER                                    TOTAL       BLAS       SMM       ACC
 flops inhomo. stacks                           0       0.0%      0.0%      0.0%
 flops total                         0.000000E+00       0.0%      0.0%      0.0%
 flops max/rank                      0.000000E+00       0.0%      0.0%      0.0%
 matmuls inhomo. stacks                         0       0.0%      0.0%      0.0%
 matmuls total                                  0       0.0%      0.0%      0.0%
 number of processed stacks                     0       0.0%      0.0%      0.0%
 average stack size                                     0.0       0.0       0.0
 marketing flops                     0.000000E+00
 -------------------------------------------------------------------------------
 -                                                                             -
 -                      DBCSR MESSAGE PASSING PERFORMANCE                      -
 -                                                                             -
 -------------------------------------------------------------------------------
 ROUTINE             CALLS      AVE VOLUME [Bytes]
 MP_Bcast                1                     12.
 MP_Allreduce           19                     21.
 -------------------------------------------------------------------------------

 MEMORY| Estimated peak process memory [MiB]                                 101

 -------------------------------------------------------------------------------
 -                                                                             -
 -                         MESSAGE PASSING PERFORMANCE                         -
 -                                                                             -
 -------------------------------------------------------------------------------

 ROUTINE             CALLS      AVE VOLUME [Bytes]
 MP_Bcast              100                      4.
 MP_Allreduce          929                    847.
 -------------------------------------------------------------------------------


 -------------------------------------------------------------------------------
 -                                                                             -
 -                           R E F E R E N C E S                               -
 -                                                                             -
 -------------------------------------------------------------------------------
 
 CP2K version 7.1, the CP2K developers group (2019).
 CP2K is freely available from https://www.cp2k.org/ .

 Schuett, Ole; Messmer, Peter; Hutter, Juerg; VandeVondele, Joost. 
 Electronic Structure Calculations on Graphics Processing Units, John
 Wiley & Sons, Ltd, 173-190 (2016). 
 GPU-Accelerated Sparse Matrix-Matrix Multiplication for
 Linear Scaling Density Functional Theory.
 https://dx.doi.org/10.1002/9781118670712.ch8

 Borstnik, U; VandeVondele, J; Weber, V; Hutter, J. 
 PARALLEL COMPUTING, 40 (5-6), 47-58 (2014). 
 Sparse matrix multiplication: The distributed block-compressed sparse
 row library.
 https://dx.doi.org/10.1016/j.parco.2014.03.012

 Hutter, J; Iannuzzi, M; Schiffmann, F; VandeVondele, J. 
 WIREs Comput Mol Sci., 4 (1), 15-25 (2014). 
 CP2K: atomistic simulations of condensed matter systems.
 https://dx.doi.org/10.1002/wcms.1159

 Frigo, M; Johnson, SG. 
 PROCEEDINGS OF THE IEEE, 93 (2), 216-231 (2005). 
 The design and implementation of FFTW3.
 https://dx.doi.org/10.1109/JPROC.2004.840301


 -------------------------------------------------------------------------------
 -                                                                             -
 -                                T I M I N G                                  -
 -                                                                             -
 -------------------------------------------------------------------------------
 SUBROUTINE                       CALLS  ASD         SELF TIME        TOTAL TIME
                                MAXIMUM       AVERAGE  MAXIMUM  AVERAGE  MAXIMUM
 CP2K                                 1  1.0    0.225    0.413  201.637  201.637
 qs_mol_dyn_low                       1  2.0    0.008    0.046  199.636  199.707
 fist_calc_energy_force             101  4.0    0.029    0.121  198.216  198.420
 velocity_verlet                    100  3.0    0.006    0.008  197.298  197.327
 force_nonbond                      101  5.0  143.039  187.351  143.039  187.351
 mp_sum_d                           584  2.4   53.963  119.659   53.963  119.659
 -------------------------------------------------------------------------------

 The number of warnings for this run is : 0
 
 -------------------------------------------------------------------------------
  **** **** ******  **  PROGRAM ENDED AT                 2020-11-10 15:37:03.692
 ***** ** ***  *** **   PROGRAM RAN ON                     cas062.pi.sjtu.edu.cn
 **    ****   ******    PROGRAM RAN BY                                      root
 ***** **    ** ** **   PROGRAM PROCESS ID                                418975
  **** **  *******  **  PROGRAM STOPPED IN        /lustre/share/tmp/samples/cp2k
